# data.argon - 5-atom Argon system for zero_force_plugin test
5 atoms
1 atom types

0.0 10.0 xlo xhi
0.0 10.0 ylo yhi
0.0 10.0 zlo zhi

Masses

1 39.95  # Argon atomic mass (g/mol)

Atoms # id type x y z

1 1 1.0 1.0 1.0
2 1 3.0 1.0 1.0
3 1 1.0 3.0 1.0
4 1 3.0 3.0 1.0
5 1 2.0 2.0 3.0  # Central atom
