LAMMPS (29 Aug 2024)
OMP_NUM_THREADS environment is not set. Defaulting to 1 thread. (src/comm.cpp:98)
  using 1 OpenMP thread(s) per MPI task
Loaded 1 plugins from /home/excelsior/apps/deepmd/3.0.0/lib/deepmd_lmp
#variable seed equal 12345
variable temp equal 1000
units metal
atom_style atomic
boundary p p p
#newton off

lattice fcc 3.26
Lattice spacing in x,y,z = 3.26 3.26 3.26
region box block 0 20 0 20 0 20
create_box 1 box
Created orthogonal box = (0 0 0) to (65.2 65.2 65.2)
  1 by 1 by 1 MPI processor grid
create_atoms 1 box
Created 32000 atoms
  using lattice units in orthogonal box = (0 0 0) to (65.2 65.2 65.2)
  create_atoms CPU = 0.005 seconds

mass 1 39.95
pair_style lj/cut 10.0
pair_coeff 1 1 0.0104 3.405

group zero_group id 34 56 256
3 atoms in group zero_group

timestep 0.001
#velocity all create ${temp} ${seed}
# 加载插件
# 调用 metad fix：fix ID group metad sigma height biasf pace cv_dim nbin_num continue(bool)
fix 2 all plumed plumedfile plumed.dat
fix             1 all nvt  temp ${temp} ${temp} 100.0
fix             1 all nvt  temp 1000 ${temp} 100.0
fix             1 all nvt  temp 1000 1000 100.0


thermo 1000
thermo_style custom step temp epair etotal press
dump 1 all atom 100 dump.metad.lammpstrj

run 3
Generated 0 of 0 mixed pair_coeff terms from geometric mixing rule
Neighbor list info ...
  update: every = 1 steps, delay = 0 steps, check = yes
  max neighbors/atom: 2000, page size: 100000
  master list distance cutoff = 12
  ghost atom cutoff = 12
  binsize = 6, bins = 11 11 11
  1 neighbor lists, perpetual/occasional/extra = 1 0 0
  (1) pair lj/cut, perpetual
      attributes: half, newton on
      pair build: half/bin/atomonly/newton
      stencil: half/bin/3d
      bin: standard
Per MPI rank memory allocation (min/avg/max) = 72.74 | 72.74 | 72.74 Mbytes
   Step          Temp          E_pair         TotEng         Press     
         0   0              771797.61      771797.61      18994734     
         3   2.9410892e-23  771797.61      771797.61      18994734     
Loop time of 0.742316 on 1 procs for 3 steps with 32000 atoms

Performance: 0.349 ns/day, 68.733 hours/ns, 4.041 timesteps/s, 129.325 katom-step/s
97.5% CPU use with 1 MPI tasks x 1 OpenMP threads

MPI task timing breakdown:
Section |  min time  |  avg time  |  max time  |%varavg| %total
---------------------------------------------------------------
Pair    | 0.73358    | 0.73358    | 0.73358    |   0.0 | 98.82
Neigh   | 0          | 0          | 0          |   0.0 |  0.00
Comm    | 0.0013053  | 0.0013053  | 0.0013053  |   0.0 |  0.18
Output  | 0.00014669 | 0.00014669 | 0.00014669 |   0.0 |  0.02
Modify  | 0.0062917  | 0.0062917  | 0.0062917  |   0.0 |  0.85
Other   |            | 0.0009904  |            |       |  0.13

Nlocal:          32000 ave       32000 max       32000 min
Histogram: 1 0 0 0 0 0 0 0 0 0
Nghost:          51187 ave       51187 max       51187 min
Histogram: 1 0 0 0 0 0 0 0 0 0
Neighs:     1.4176e+07 ave  1.4176e+07 max  1.4176e+07 min
Histogram: 1 0 0 0 0 0 0 0 0 0

Total # of neighbors = 14176000
Ave neighs/atom = 443
Neighbor list builds = 0
Dangerous builds = 0
Total wall time: 0:00:02
