LAMMPS (29 Aug 2024)
OMP_NUM_THREADS environment is not set. Defaulting to 1 thread. (src/comm.cpp:98)
  using 1 OpenMP thread(s) per MPI task
Loaded 1 plugins from /home/excelsior/apps/deepmd/3.0.0/lib/deepmd_lmp
variable temp equal 1000
# 简单 2-D 玩具体系，用 Lennard-Jones
units metal
atom_style atomic
boundary p p p

region box block -20 20 -20 20 -20 20
create_box 1 box
Created orthogonal box = (-20 -20 -20) to (20 20 20)
  1 by 1 by 1 MPI processor grid
#create_atoms 1 random 2 12345 box
create_atoms 1 single 0.0 0.0 0.0
Created 1 atoms
  using lattice units in orthogonal box = (-20 -20 -20) to (20 20 20)
  create_atoms CPU = 0.000 seconds
create_atoms 1 single 6.0 0.0 0.0
Created 1 atoms
  using lattice units in orthogonal box = (-20 -20 -20) to (20 20 20)
  create_atoms CPU = 0.000 seconds

mass 1 16
pair_style lj/cut 10.0
pair_coeff 1 1 0.1947 3.541


timestep 0.001
#velocity all create 1.0 12345
#velocity all create 1.0 0.0 0.0
velocity all create ${temp} 12345
velocity all create 1000 12345

# 加载插件
#plugin load /home/excelsior/zqc/work/lammps-metad-toy/fix_crystallize_plugin.so

# 调用 metad fix：fix ID group metad sigma height biasf pace cv_dim nbin_num continue(bool)
#fix metad all metad 0.2 0.05 10 100 1 1600 0
group metad_group id 1 2
2 atoms in group metad_group
fix 2 metad_group plumed plumedfile plumed.dat
WARNING: Fix group for fix plumed is not 'all'. Group will be ignored. (src/PLUMED/fix_plumed.cpp:66)
fix             1 all nvt  temp ${temp} ${temp} 100.0
fix             1 all nvt  temp 1000 ${temp} 100.0
fix             1 all nvt  temp 1000 1000 100.0


thermo 1000
thermo_style custom step temp epair etotal press
dump 1 all atom 100 dump.metad.lammpstrj

run 1000000
Generated 0 of 0 mixed pair_coeff terms from geometric mixing rule
Neighbor list info ...
  update: every = 1 steps, delay = 0 steps, check = yes
  max neighbors/atom: 2000, page size: 100000
  master list distance cutoff = 12
  ghost atom cutoff = 12
  binsize = 6, bins = 7 7 7
  1 neighbor lists, perpetual/occasional/extra = 1 0 0
  (1) pair lj/cut, perpetual
      attributes: half, newton on
      pair build: half/bin/atomonly/newton
      stencil: half/bin/3d
      bin: standard
Per MPI rank memory allocation (min/avg/max) = 3.063 | 3.063 | 3.063 Mbytes
   Step          Temp          E_pair         TotEng         Press     
         0   1000          -0.031515574    0.097744571    0.6489558    
      1000   4499.6842      0              0.61695473     12.624993    
      2000   7442.3684      0              1.1346489      17.729407    
      3000   9330.4097      0              1.649105       13.057904    
      4000   10636.521      0              2.1697359      6.9262127    
      5000   17812.91       0              2.6844674      73.405349    
      6000   21906.681      0              3.1948113      32.228624    
      7000   25066.957      0              3.6707753      45.955675    
      8000   28367.058     -0.0017362913   4.1381272      61.171595    
      9000   29378.633      0              4.6029216      53.68009     
     10000   33911.359      0              5.0176808      128.74418    
     11000   26506.488      0              5.4306454      116.05787    
     12000   33923.023      0              5.8054553      151.92582    
     13000   28501.535      0              6.1929651      17.899572    
     14000   38666.16       0              6.5036096      47.933176    
     15000   41266.395      0              6.756471       61.860307    
     16000   30267.308      0              6.9545765      21.811729    
     17000   43862.313      0              7.1516439      66.978458    
     18000   28043.422      0              7.3040059      65.354638    
     19000   52868.121     -0.009034615    7.4593522      106.4608     
     20000   48734.299      0              7.5733898      212.75335    
     21000   27286.822      0              7.6574271      42.128143    
     22000   44963.459      0              7.6710162      219.77124    
     23000   40408.476      0              7.7020327      46.667552    
     24000   30891.182      0              7.7607053      172.26433    
     25000   54009.953     -0.027614247    7.6530326      106.61663    
     26000   51969.933      0              7.6062071      201.53209    
     27000   53308.418     -0.03699868     7.6289103      103.61588    
     28000   24663.092      0              7.6578015     -6.0517014    
     29000   29179.737      0              7.7160717      177.27473    
     30000   23366.946      0              7.9085566      135.46067    
     31000   37553.158      0              8.0166756      39.236724    
     32000   48057.9       -0.0019972715   8.0627656      78.596914    
     33000   29327.471      0              8.0831398      204.88834    
     34000   41440.177      0              8.2550359      56.405187    
     35000   17831.387      0              8.4603019      73.406032    
     36000   20099.796      0              8.6821335      118.02507    
     37000   40803.798      0              8.7463135      252.21667    
     38000   32325.238      0              8.7569931      231.94416    
     39000   35402.813      0              9.1203127      15.16372     
     40000   55572.726     -0.003983707    9.2042384      92.339505    
     41000   55097.024      0              9.4364721      288.57116    
     42000   48583.056      0              9.6257922      66.27752     
     43000   39786.064      0              9.7104084      265.47628    
     44000   55040.037      0              9.9047843      303.77989    
     45000   26169.806      0              9.6939944     -36.09363     
     46000   19401.348      0              9.8361438     -43.449861    
     47000   40062.014      0              9.985627       40.572446    
     48000   15457.356      0              10.058993      103.99672    
     49000   56498.493     -0.0030588622   10.236791      87.867959    
     50000   31830.38       0              10.145535      275.46959    
     51000   50931.417      0              10.376489      72.04432     
     52000   36439.293      0              10.362569      17.091128    
     53000   10019.106      0              10.446953      22.133957    
     54000   19018.547      0              10.612331     -79.789962    
     55000   29888.579      0              10.304424      289.2905     
     56000   37654.48       0              10.259892      311.04841    
     57000   16616.261      0              10.518571      230.60455    
     58000   6355.3426      0              10.657102      43.862448    
     59000   6064.9274      0              10.780594     -24.914398    
     60000   73857.156      0.54443331     10.870469      259.47722    
     61000   35555.209      0              11.161828     -3.7946443    
     62000   4663.642       0              11.09713       73.250913    
     63000   17888.781      0              10.947423      265.67484    
     64000   33720.303      0              10.664945      342.54015    
     65000   25629.33       0              10.644789      309.01047    
     66000   14828.391      0              10.453516      250.05194    
     67000   11385.817      0              10.945731      205.13224    
     68000   1698.2202      0              11.22706       65.220392    
     69000   4708.5807      0              11.589984      97.215677    
     70000   39868.736      0              11.82644       7.7540019    
     71000   18467.282      0              11.779814     -121.68225    
     72000   70991.813      0              12.244806      448.32565    
     73000   3340.7582      0              12.328493      59.554442    
     74000   2002.9591      0              12.403123     -7.0219999    
     75000   51047.421      0              12.193789      69.957357    
     76000   1474.3917      0              12.244143     -93.860883    
     77000   39128.961      6.2189701      12.195839      826.64221    
     78000   3027.2904      0              12.215012     -138.83827    
     79000   40220.514      0              12.030673      22.063738    
     80000   79807.737     -0.17276768     12.168706      144.7483     
     81000   37769.266      0              12.105911      12.561131    
     82000   2889.1578      0              12.00267      -160.97197    
     83000   4732.3634      0              11.854828     -162.72948    
     84000   28660.439      0              11.773449     -35.443358    
     85000   43425.169      0              11.764036      52.000203    
     86000   57682.872     -0.010863625    11.727755      90.769587    
     87000   74270.075      0.31919339     11.671629      222.45508    
     88000   66338.78      -0.069732836    11.91296       108.7241     
     89000   51799.41      -0.0058041623   11.897391      74.734561    
     90000   41683.634      0              11.910077      45.877392    
     91000   33558.34       0              11.934294      19.56153     
     92000   25739.153      0              11.978299     -21.548496    
     93000   17485.71       0              12.026311     -71.889799    
     94000   10186.315      0              12.066503     -106.75034    
     95000   5097.5374      0              12.107155     -119.86397    
     96000   2148.4529      0              12.157358     -120.72713    
     97000   703.49158      0              12.219009     -117.24421    
     98000   157.69152      0              12.291268     -112.89329    
     99000   53.602695      0              12.373407     -108.65446    
    100000   73.970009      0              12.464874     -104.67869    
    101000   56.980454      0              12.565415     -100.94202    
    102000   59.92716       0              12.674841     -97.513939    
    103000   462.60567      0              12.793083     -95.175869    
    104000   2240.3912      0              12.922048     -95.350111    
    105000   8079.5502      0              13.067992     -91.334003    
    106000   23425.139      0              13.215911     -34.679143    
    107000   48211.543     -0.0096661436   13.336123      59.963105    
    108000   61924.052     -0.070048031    13.200112      87.912152    
    109000   18471.019      0              13.369265     -57.983804    
    110000   34.702257      0              13.585935     -82.607163    
    111000   31192.641      0              13.808156     -5.4182161    
    112000   39360.587     -0.00375818     13.705761      28.912556    
    113000   661.6527       0              13.94508      -85.283518    
    114000   73489.501      0.80097583     13.791452      265.81006    
    115000   314.03465      0              14.163432     -84.808987    
    116000   45951.864     -0.010159205    14.142959      48.188558    
    117000   24602.737      0              14.488381     -40.363012    
    118000   36.218519      0              14.474654     -85.422016    
    119000   16080.187      0              14.480567     -72.684839    
    120000   45589.373     -0.012291716    14.562738      43.586632    
    121000   68804.858     -0.14846262     14.582054      92.063717    
    122000   70960.18      -0.1731115      14.67511       97.125491    
    123000   48288.38      -0.020281129    14.863725      47.426269    
    124000   18349.645     -0.0017047886   14.996595     -64.831957    
    125000   145.33699      0              15.211459     -88.396051    
    126000   22620.256     -0.0026690063   15.453259     -50.181909    
    127000   41385.466     -0.013440217    15.288679      22.889621    
    128000   1945.8372      0              15.578918     -91.24822     
    129000   44355.741     -0.020981321    15.494473      28.690957    
    130000   17236.997     -0.0028388825   15.88557      -67.846024    
    131000   570.81253      0              15.865215     -88.406098    
    132000   19697.864     -0.0041272454   15.869616     -58.418016    
    133000   45794.258     -0.032448039    15.929639      25.257702    
    134000   53504.566     -0.064879591    16.015809      41.365788    
    135000   33761.082     -0.014911197    16.192688     -12.878427    
    136000   6071.8629     -0.0027013789   16.418287     -86.934377    
    137000   2450.6244     -0.0023492589   16.656443     -87.405118    
    138000   18543.805      9.1260895      16.947958      1057.6375    
    139000   17.755522     -0.0024477703   16.877729     -84.211314    
    140000   49216.587     -0.067976838    16.761822      17.942662    
    141000   34459.75      -0.027621625    17.360754     -22.48819     
    142000   10421.732     -0.0068972638   17.398465     -79.905463    
    143000   11431.431     -0.0082391724   17.550366     -78.550787    
    144000   45155.501     -0.068714259    17.860592     -2.6616224    
    145000   23644.98      -0.021665329    17.552955     -56.252997    
    146000   5825.429      -0.0081874548   17.963257     -84.635506    
    147000   5543.2074     -0.0090980839   17.969302     -84.912923    
    148000   29099.037     -0.040015811    17.964384     -50.293291    
    149000   20070.218     -0.027157534    18.171282     -69.958012    
    150000   211.20116     -0.0089757657   18.504548     -84.249986    
    151000   68697.154     -0.15700103     19.129149      63.47152     
    152000   4317.2016     -0.015194521    18.911724     -88.667929    
    153000   2549.4245     -0.015263631    19.060213     -89.042971    
    154000   35815.744     -0.093849817    19.497732     -50.360881    
    155000   3133.362      -0.020229709    19.284306     -91.944429    
    156000   29552.173     -0.085372336    19.211404     -67.462715    
    157000   10233.431     -0.038201894    19.549243     -94.693937    
    158000   8158.5373     -0.037977835    19.992051     -97.279974    
    159000   281.6646      -0.026958093    20.031345     -96.056447    
    160000   507.59051     -0.030650513    20.259136     -98.149748    
    161000   618.88278      11.140859      20.623588      1191.2431    
    162000   25248.832     -0.11666899     20.917861     -87.248644    
    163000   7768.3781      9.8080444      21.18379       1057.3192    
    164000   387.72215     -0.047017808    21.026932     -105.93597    
    165000   22.236936     -0.051021452    21.197649     -107.61532    
    166000   27572.931     -0.16183131     21.775808     -89.558771    
    167000   441.63439     -0.063272046    21.654951     -112.0366     
    168000   6499.9669     -0.091368184    21.981629     -115.90936    
    169000   20829.184     -0.15927525     21.732735     -105.04699    
    170000   34536.556     -0.19191364     21.799699     -73.924507    
    171000   3.107668      -0.087264197    22.532846     -119.39067    
    172000   14459.29      -0.15682978     22.504025     -117.23782    
    173000   1461.2729     -0.10769309     22.961487     -123.78445    
    174000   9972.4675      7.669042       23.72296       797.78031    
    175000   31937.852      3.8029923      24.107361      413.85284    
    176000   6096.028      -0.1509878      23.655119     -128.37611    
    177000   40072.421      0.56484299     23.437386      43.154813    
    178000   12174.743     -0.18630537     24.111714     -125.50727    
    179000   25035.716     -0.15367473     25.124492     -93.798795    
    180000   14682.325     -0.1946978      25.288673     -122.26342    
    181000   30534.715      2.5703383      24.659566      255.79218    
    182000   13627.018     -0.19326976     25.906485     -123.96223    
    183000   19365.134     -0.15141659     26.320904     -106.98075    
    184000   21772.874     -0.087330049    25.78814      -93.265302    
    185000   24531.18       2.9071928      27.165738      273.40729    
    186000   888.09573      7.0956155      26.986386      685.97085    
    187000   1272.4232     -0.189402       27.202929     -138.50094    
    188000   25501.216      0.48483625     27.064192     -14.378376    
    189000   21376.989      0.14225908     27.498361     -66.731136    
    190000   11.219339     -0.19304922     28.381157     -139.47925    
    191000   23489.367      0.84674369     28.169276      22.125982    
    192000   5924.945       5.3316061      28.908997      491.41178    
    193000   15774.006      0.051591972    29.08822      -91.084637    
    194000   3592.7076     -0.18159933     30.062376     -136.19395    
    195000   4946.0744     -0.16503517     30.10521      -133.14279    
    196000   10115.788     -0.060878263    30.384077     -114.8805     
    197000   1021.9401     -0.18273019     31.030971     -137.66843    
    198000   14985.462      0.29376354     31.942669     -66.008018    
    199000   1468.1665     -0.16956593     31.839485     -135.90802    
    200000   13278.744      0.26682333     31.946146     -73.085286    
    201000   12869.441      0.29346408     32.375137     -71.169426    
    202000   1607.2425     -0.14703287     33.106383     -133.19078    
    203000   10287.049      0.17604725     33.987188     -89.333344    
    204000   5588.7318     -0.032009823    33.8497       -118.20851    
    205000   155.07733      4.9593074      34.58079       417.61626    
    206000   12709.544      1.5515883      35.432522      66.8248      
    207000   11839.711      1.7831495      35.875583      89.98044     
    208000   1246.463       4.4842814      35.798321      364.06384    
    209000   4649.7005      0.030692626    36.09975      -112.65083    
    210000   6317.4079      0.15030344     37.037328     -98.734256    
    211000   7122.937       0.25038633     36.934179     -87.466376    
    212000   7561.991       2.6053648      38.107507      167.30116    
    213000   3177.3998      0.038323311    38.3342       -112.8161     
    214000   60.841835     -0.067243672    38.649541     -123.46191    
    215000   46.505672     -0.057590338    39.076209     -122.31093    
    216000   93.156881     -0.045769944    39.593811     -120.97466    
    217000   2933.9537      0.099165464    40.208639     -106.74035    
    218000   7171.1072      2.0559359      40.900268      101.75777    
    219000   7906.9899      1.1611566      40.61982       6.8533677    
    220000   150.02763     -0.00035982017  41.503285     -115.81331    
    221000   745.05049      3.7286851      42.148256      266.41955    
    222000   127.78164      0.021043418    42.394843     -113.35098    
    223000   213.25791      3.754342       42.913169      266.13136    
    224000   1437.4636      0.12246559     43.514085     -104.05735    
    225000   4061.3556      0.4018125      43.647798     -76.894042    
    226000   134.07899      3.6337688      44.494301      250.23468    
    227000   4266.8426      0.5047283      45.093027     -66.995288    
    228000   33.199683      0.083476059    45.36433      -106.15282    
    229000   2027.6721      0.25667496     45.683321     -91.191091    
    230000   5284.6026      1.0702591      46.027233     -10.92602     
    231000   2700.3111      2.6806429      46.609252      150.1406     
    232000   12.401674      3.4228533      47.396451      222.32725    
    233000   1880.1499      2.8489428      48.062348      164.77528    
    234000   3542.6887      2.1993977      48.605978      99.517655    
    235000   4103.2311      1.8376566      49.10709       62.770191    
    236000   4138.9408      1.713238       49.600488      49.703888    
    237000   3940.8037      1.7613396      50.094834      53.780677    
    238000   3520.9782      1.9472231      50.587957      71.420795    
    239000   2796.3459      2.2436057      51.07242       99.815998    
    240000   1772.9284      2.5999407      51.538429      133.90552    
    241000   709.75017      2.9210505      51.978521      164.36257    
    242000   63.72116       3.0906762      52.394501      179.96541    
    243000   115.57459      3.0477957      52.800956      174.93095    
    244000   698.85624      2.8353348      53.218345      153.50538    
    245000   1402.7062      2.5593355      53.660401      126.00091    
    246000   1927.9755      2.3153014      54.128673      101.69124    
    247000   2186.0549      2.1582184      54.61762       85.882647    
    248000   2192.2227      2.1134847      55.121759      80.953557    
    249000   1948.1457      2.1944392      55.640562      88.092271    
    250000   1398.7384      2.4048738      56.181847      107.59376    
    251000   562.84596      2.6991056      56.762555      135.0464     
    252000   0.065699911    2.8720002      57.394162      150.836      
    253000   853.71159      2.5422859      58.037762      118.71039    
    254000   2384.116       1.6826054      58.601107      36.937102    
    255000   2058.6219      0.87561125     59.054248     -36.303557    
    256000   519.63683      0.45749527     59.46052      -69.129796    
    257000   85.199775      0.39204113     59.86108      -73.102436    
    258000   1723.1066      0.8143354      60.236691     -41.506849    
    259000   898.26763      2.3834723      60.787802      99.991357    
    260000   1948.3838      1.7425772      61.6375        39.984561    
    261000   360.99588      0.48070257     61.994729     -66.040921    
    262000   1249.3775      0.72337406     62.304766     -48.497927    
    263000   2.5658095      2.6740524      62.996316      124.77211    
    264000   801.86865      0.61813116     63.563393     -55.93244     
    265000   1520.8406      0.90363725     63.815672     -34.240261    
    266000   1538.311       1.8388487      64.684162      46.362309    
    267000   239.55828      0.51242294     64.941809     -62.111898    
    268000   456.50403      2.4078954      65.644517      97.288429    
    269000   203.90923      0.52192509     65.969621     -60.884263    
    270000   1301.6641      1.8952487      66.719752      49.872396    
    271000   1267.5755      0.91193238     66.900406     -33.481544    
    272000   678.24843      0.68125539     67.650951     -49.969657    
    273000   32.613889      2.5243827      68.130191      105.29749    
    274000   1221.3441      0.9536344      68.439769     -30.231239    
    275000   19.405802      0.52526271     69.10955      -58.638826    
    276000   1223.0927      1.0043688      69.750794     -26.369878    
    277000   778.34675      2.0926927      70.27943       64.644433    
    278000   50.62183       2.4587645      70.626562      96.82279     
    279000   750.37192      2.0760962      71.02862       62.380222    
    280000   1048.4913      1.8368946      71.51643       41.216391    
    281000   923.44306      1.9186432      72.039905      47.924951    
    282000   337.85602      2.2722135      72.618129      78.382041    
    283000   138.24642      2.3641991      73.291291      86.045092    
    284000   1203.6811      1.4394283      73.880461      7.0262699    
    285000   267.32428      0.66992917     74.2907       -47.590602    
    286000   462.67845      0.75163746     74.666384     -42.639207    
    287000   235.53558      2.2730771      75.204626      76.324504    
    288000   806.5936       0.95262983     75.889594     -29.566998    
    289000   715.09431      0.90910722     76.185021     -32.343479    
    290000   895.95945      1.7507775      76.960631      31.031157    
    291000   445.25082      0.79044186     77.24106      -39.354179    
    292000   1017.5429      1.3813778      77.98312       1.2977231    
    293000   981.25125      1.5009367      78.21077       10.369003    
    294000   9.9956533      0.6396184      78.877336     -46.478268    
    295000   954.01434      1.4417976      79.527069      5.5021445    
    296000   65.380682      2.2902714      79.877012      74.122084    
    297000   919.26253      1.3962202      80.278132      1.8176478    
    298000   532.35986      0.90485809     80.837392     -31.504653    
    299000   255.06819      0.76654438     81.384591     -38.948988    
    300000   238.9226       0.76581599     81.902283     -38.752107    
    301000   465.52068      0.8933619      82.390912     -31.741399    
    302000   828.93519      1.3406303      82.864169     -2.7308432    
    303000   110.32071      2.2155851      83.471208      65.190024    
    304000   788.52817      1.5121656      84.158543      9.4770145    
    305000   11.212499      0.69378125     84.550433     -40.705278    
    306000   744.68332      1.5608239      84.930819      12.765447    
    307000   733.24453      1.2648008      85.691187     -8.2830291    
    308000   542.47843      1.0233356      85.992222     -23.457408    
    309000   700.87153      1.2523251      86.720305     -9.181079     
    310000   674.49166      1.6063987      87.000758      15.449687    
    311000   1.8473947      0.71508311     87.640563     -38.073093    
    312000   694.32631      1.3937104      88.274777      0.11138909   
    313000   3.0429047      2.2293951      88.678646      62.715948    
    314000   611.74921      1.6425954      89.071301      17.384771    
    315000   607.6883       1.2116791      89.595586     -11.862484    
    316000   536.90017      1.1199022      90.120986     -17.329192    
    317000   617.93211      1.2894443      90.62575      -7.0453011    
    318000   449.22584      1.8255449      91.153482      29.978086    
    319000   90.021972      2.142803       91.835101      53.839932    
    320000   464.61672      1.0822704      92.373214     -19.208864    
    321000   109.01629      0.81113313     92.76293      -31.749797    
    322000   40.398077      2.16692        93.300675      54.737663    
    323000   97.05426       0.81227401     93.870252     -31.229624    
    324000   208.51526      2.0245865      94.288657      43.273227    
    325000   0.00037114482  0.76340765     94.868305     -32.376825    
    326000   473.79621      1.7000862      95.4993        19.284234    
    327000   415.22526      1.7812187      95.807243      24.772317    
    328000   250.4752       0.94247777     96.357509     -25.065576    
    329000   2.8056036      0.77685267     96.930139     -30.863943    
    330000   31.268597      0.79696703     97.472865     -29.993566    
    331000   28.21292       0.79806507     97.988875     -29.700712    
    332000   5.7029397      0.78692559     98.478656     -29.759853    
    333000   267.33178      0.98613778     98.939514     -22.475086    
    334000   299.02602      1.8791386      99.440964      30.105458    
    335000   475.46858      1.5301836      100.14562      6.706886     
    336000   25.559042      0.81036535     100.53745     -28.057897    
    337000   1.8028924      2.1537222      101.0806       48.991615    
    338000   0.83980518     0.798829       101.58663     -27.839466    
    339000   250.42081      1.9105826      102.1994       31.108726    
    340000   438.277        1.3234448      102.53133     -5.7314089    
    341000   1.7501689      0.80614169     103.13688     -26.869222    
    342000   221.43772      0.99016104     103.71645     -21.038714    
    343000   417.93218      1.3132105      104.26815     -6.348052     
    344000   428.95905      1.4119668      104.79059     -1.0650665    
    345000   361.40292      1.1974274      105.29201     -12.065723    
    346000   84.670458      0.88117756     105.7615      -23.796444    
    347000   100.40164      0.89732695     106.20808     -23.150176    
    348000   206.4172       1.9277102      106.6958       30.126901    
    349000   317.98201      1.1556268      107.3548      -13.738481    
    350000   334.30074      1.1937076      107.71944     -12.038072    
    351000   326.54634      1.1876823      108.39171     -12.2618      
    352000   251.92908      1.8528428      108.75682      24.324879    
    353000   58.04523       0.87552676     109.32213     -22.39504     
    354000   115.9526       0.93159411     109.90726     -20.875557    
    355000   351.96319      1.2912926      110.46825     -7.5561649    
    356000   373.53496      1.4870591      110.99591      2.1344323    
    357000   354.24024      1.3295728      111.50493     -5.8010165    
    358000   140.53884      0.96865486     111.98203     -19.215394    
    359000   27.820268      0.85914344     112.43608     -21.322051    
    360000   299.67342      1.7298235      112.88885      15.22757     
    361000   323.40394      1.2771597      113.56927     -8.1716822    
    362000   261.0305       1.147991       113.93981     -13.195093    
    363000   264.93271      1.1609791      114.5929      -12.670393    
    364000   110.8834       2.0114788      114.99459      31.641675    
    365000   170.55366      1.0266336      115.50875     -16.648076    
    366000   0.11793709     0.84062699     116.07681     -19.847738    
    367000   30.156395      0.87130965     116.61493     -19.281657    
    368000   16.903662      0.85875096     117.12759     -19.182034    
    369000   19.275536      0.86196281     117.61542     -18.910533    
    370000   301.48567      1.3028644      118.07118     -7.091917     
    371000   90.244873      2.0341582      118.72832      31.261963    
    372000   8.8774298      0.852883       119.19421     -18.261167    
    373000   51.097636      2.081024       119.67162      33.65315     
    374000   10.861321      0.85578481     120.20782     -17.755111    
    375000   288.38236      1.3057578      120.81244     -7.000609     
    376000   16.481391      2.1226947      121.28858      35.423033    
    377000   139.10432      1.9707237      121.71514      25.90779     
    378000   156.31281      1.9454004      122.22877      24.182693    
    379000   1.2245765      2.143654       122.82518      35.869912    
    380000   298.05152      1.4115091      123.40616     -2.9956833    
    381000   0.95513853     0.84445922     123.8401      -16.05769     
    382000   111.6031       2.0123837      124.3101       27.121679    
    383000   11.739559      0.85700576     124.89061     -15.571992    
    384000   131.24835      1.986213       125.4676       25.098645    
    385000   293.56289      1.5378691      125.8318       1.9643222    
    386000   132.85157      1.0266693      126.3872      -13.777984    
    387000   89.416612      0.9624162      126.91468     -14.335131    
    388000   208.26101      1.1686755      127.40681     -10.873778    
    389000   99.027283      2.0403901      127.93715      26.934955    
    390000   223.27148      1.2104942      128.56624     -9.7559211    
    391000   153.93672      1.0713428      128.97154     -12.514505    
    392000   201.26483      1.1666019      129.5972      -10.689155    
    393000   38.654196      2.1308503      130.03007      31.05366     
    394000   260.69927      1.345958       130.50089     -5.8730166    
    395000   198.95901      1.1703347      131.03291     -10.436138    
    396000   280.19127      1.5270614      131.52904      0.41490925   
    397000   61.981599      2.1132036      132.18246      28.882467    
    398000   23.055193      0.86031831     132.66228     -12.031237    
    399000   130.32874      2.0187245      133.10555      23.096649    
    400000   19.561495      0.85126159     133.66724     -11.460736    
    401000   35.397718      0.8764823      134.21986     -11.523766    
    402000   60.946695      0.91927386     134.74474     -11.662395    
    403000   0.59310356     0.81054689     135.23829     -10.063119    
    404000   233.75041      1.2890974      135.68476     -7.6275742    
    405000   184.97096      1.1605179      136.32639     -10.094723    
    406000   197.26862      1.9175997      136.71502      16.08952     
    407000   172.10609      1.1340996      137.2527      -10.329867    
    408000   229.69739      1.28519        137.75696     -7.7777782    
    409000   52.009685      2.1825828      138.39457      29.113446    
    410000   0.47747996     0.78140209     138.85925     -7.519477     
    411000   185.25089      1.1684545      139.434       -9.7627344    
    412000   217.99751      1.2548443      139.95966     -8.4576881    
    413000   1.3763127      0.76542566     140.41876     -6.2317201    
    414000   63.564162      2.2014383      140.98903      28.472011    
    415000   39.198514      2.2433621      141.42121      30.410941    
    416000   43.173589      0.85851704     141.99005     -8.1829761    
    417000   217.98607      1.2542544      142.54931     -8.6371963    
    418000   66.942472      0.90784583     142.97616     -8.8619265    
    419000   0.45834716     0.68342405     143.52179     -1.1117203    
    420000   1028958.8      0              134.41528      2406.6016    
    421000   718913.25      0              107.47299      1583.2667    
    422000   492581.73      0              78.026869      1102.7876    
    423000   312405.68      0              56.042553      749.84099    
    424000   224389.82      0              42.511597      633.0413     
    425000   136056.27      0              32.820127      323.64663    
    426000   99455.962      0              28.612094      263.44741    
    427000   79069.162      0              25.627003      195.92198    
    428000   60624.417      0              23.502394      157.93741    
    429000   45266.838      0              21.945736      137.06671    
    430000   15541.418      0              21.007675      102.47459    
    431000   107713.25      0              20.309441      641.61378    
    432000   53486.679      0              19.137076      385.64829    
    433000   29786.803      0              19.113517      211.46452    
    434000   16003.823      0              18.621314      75.429786    
    435000   12122.445      0              18.291936      68.18541     
    436000   7284.5303      0              18.075799      30.957148    
    437000   13625.357      0              18.516199      129.79172    
    438000   3720.5368      0              18.327128      23.018348    
    439000   890.54573      0              18.082293      9.3679138    
    440000   12630.092      0              18.323684      192.50633    
    441000   109864.12      0              17.513984      591.36493    
    442000   22756.453      0              16.57006       350.53828    
    443000   20027.817      0              16.178481      364.92903    
    444000   45045.566      0              15.855348      587.0945     
    445000   43895.017      0              15.786531      582.38235    
    446000   38680.863      0              15.484174      573.297      
    447000   53795.129      0              14.317011      669.98015    
    448000   77467.515      0              14.318106      674.78897    
    449000   33901.913      0              14.1631        615.11937    
    450000   92136.237      0              13.371832      459.1434     
    451000   78386.153      0              12.706285      540.84367    
    452000   1497.1651      0              12.682324      412.12941    
    453000   22919.306      0              12.528287      628.54284    
    454000   41435.859      0              11.768587      698.10242    
    455000   21251.854      0              12.202022      638.0556     
    456000   4066.3531      0              11.62938       517.31151    
    457000   9565.34        0              11.301655      580.20567    
    458000   17565.428      0              11.379832      648.19729    
    459000   64681.932      0              10.945184      575.26322    
    460000   19299.356      0              10.453677      678.1299     
    461000   36045.256      0              10.644383      714.94718    
    462000   35754.178      0              10.370689      713.82001    
    463000   23933.618      0              10.125658      706.87165    
    464000   31733.073      0              10.379097      730.68575    
    465000   3649.5776      0              10.487383      574.18731    
    466000   31580.097      0              10.676145      762.18937    
    467000   9466.7084      0              10.34177       655.50918    
    468000   1771.4211      0              10.146776      601.27089    
    469000   2075.4699      0              10.578613      591.328      
    470000   8395.3277      0              9.9810558      723.60723    
    471000   15539.565      0              9.7007443      803.36108    
    472000   8576.6379      0              10.379236      744.05437    
    473000   5749.5093      0              10.192419      752.34595    
    474000   7176.5143      0              10.327789      783.42329    
    475000   24774.51       0              10.835932      926.93737    
    476000   12978.403      0              10.778359      883.36865    
    477000   11457.572      0              10.46017       906.41773    
    478000   9043.3781      0              11.452858      853.74717    
    479000   6715.0208      0              12.20852       804.73056    
    480000   11254.196      0              12.358105      912.57556    
    481000   5384.7629      0              13.360876      725.37403    
    482000   8254.8811      0              14.141959      766.00672    
    483000   7358.3235      0              14.64482       749.09572    
    484000   8194.7866      0              15.072022      779.87123    
    485000   1436.7939      0              15.484231      565.01833    
    486000   2030.6469      0              15.559421      698.72172    
    487000   4573.8754      0              15.196249      922.92178    
    488000   6246.6645      0              16.582259      810.15473    
    489000   4764.6925      0              17.634893      607.10096    
    490000   4758.8096      0              17.651938      729.94483    
    491000   9308.1796      0              18.205646      902.49221    
    492000   855.62919      0              19.216263      248.39579    
    493000   1385.3359      0              19.776295      227.58779    
    494000   5162.3825      0              19.990174      671.86218    
    495000   16848.967      0              21.04438       78.566667    
    496000   39627.367      0              21.014279      177.98785    
    497000   23163.755      0              21.123465      112.83868    
    498000   19808.138      0              21.143736      60.906468    
    499000   17450.864      0              21.179358      49.321687    
    500000   20643.861      0              21.359547      88.512444    
    501000   42641.373      0              21.567006      174.88864    
    502000   22057.488      0              21.610563      131.21621    
    503000   16498.508      0              21.634877      28.097087    
    504000   44869.023      0              21.552117      168.97446    
    505000   45459.763      0              21.791839      181.11523    
    506000   41736.258      0              21.784129      192.91814    
    507000   31917.24       0              21.680975      188.68177    
    508000   42028.322      0              21.585309      106.1272     
    509000   40050.289      0              21.506969      116.47413    
    510000   9333.0871      0              21.477504     -0.40847479   
    511000   14518.219      0              21.774828      127.22898    
    512000   11111.132      0              21.907019      93.693645    
    513000   11909.061      0              22.161831     -2.0936449    
    514000   14384.112      0              22.334324      143.65511    
    515000   35578.675      0              22.312444      232.18565    
    516000   8122.7643      0              22.372474      80.183681    
    517000   23181.337      0              22.280191      215.75439    
    518000   39003.756      0              22.330701     -1.87748      
    519000   12258.766      0              22.565121     -18.187828    
    520000   7132.9022      0              22.780285     -41.386552    
    521000   6025.3399      0              23.045366     -39.427926    
    522000   5489.9112      0              23.310143      10.796698    
    523000   20964.667      0              23.284268      228.43013    
    524000   22998.264      0              23.407199      241.17585    
    525000   10172.555      0              23.540803     -54.689879    
    526000   19224.43       0              23.667815      70.007033    
    527000   43636.198      0              23.868774      200.01492    
    528000   20206.41       0              24.004774      79.934205    
    529000   8202.3211      0              24.06023       124.55053    
    530000   45343.031      0              24.408789      235.65707    
    531000   29006.3        0              24.44375       315.53108    
    532000   14288.837      0              24.444273      215.05336    
    533000   36105.678      0              24.648511      351.66064    
    534000   18237.594      0              24.627783      280.03333    
    535000   25859.87       0              24.568595      340.86143    
    536000   3204.0535      0              24.683235      86.571955    
    537000   2902.1832      0              24.955128      86.656948    
    538000   4768.6373      0              25.028758      128.48571    
    539000   30585.324      0              24.982134      359.20879    
    540000   30685.053      0              25.126287      354.33554    
    541000   7464.7682      0              25.123165      221.99469    
    542000   13228.647      0              25.347336      312.54116    
    543000   21567.893      0              25.539204      378.30146    
    544000   20124.066      0              25.578586      369.63472    
    545000   4560.8557      0              25.707712      192.61083    
    546000   17064.162      0              26.067589      358.97913    
    547000   30924.698      0              26.158881      293.08822    
    548000   21201.148      0              26.304341      362.25418    
    549000   2909.927       0              26.480149      187.24918    
    550000   20389.319      0              26.674019      353.66511    
    551000   1917.8616      0              26.782364      175.70701    
    552000   24657.679      0              26.895005      156.7636     
    553000   3085.8883      0              27.113035      222.89437    
    554000   25359.28       0              27.64403       165.33875    
    555000   25282.694      0              27.98967       179.54133    
    556000   10238.484      0              27.961734     -120.28012    
    557000   34518.088      0              28.071241     -48.721696    
    558000   36037.275      0              27.868248     -24.807402    
    559000   44401.391      0              27.759385      111.78545    
    560000   35480.774      0              27.660143     -5.7067944    
    561000   40917.447      0              27.696482      60.74439     
    562000   42485.345      0              27.76066       85.614807    
    563000   40771.007      0              27.705959      96.396963    
    564000   12664.409      0              27.760533     -96.659208    
    565000   17111.458      0              27.718894     -104.67835    
    566000   32733.316      0              27.730157      126.25151    
    567000   35053.449      0              27.828988      99.029643    
    568000   5294.0461      0              27.829252     -81.191238    
    569000   34301.406      0              27.907228      42.765629    
    570000   33590.823      0              27.932341      89.078078    
    571000   3645.5466      0              27.991259     -85.312698    
    572000   32896.932      0              28.025602      83.863404    
    573000   5052.8239      0              28.147946     -113.50313    
    574000   12835.762      0              28.151303     -126.65845    
    575000   18779.579      0              28.462633     -103.45977    
    576000   32737.806      0              28.519729      77.474799    
    577000   30217.326      0              28.636649      80.032523    
    578000   8911.087       0              28.758042     -139.82016    
    579000   13862.027     -0.002815035    29.161598      275.63386    
    580000   4822.0531     -0.0034495151   29.058979      345.77645    
    581000   694.35477      0              29.290886     -64.670875    
    582000   16824.17       0              29.327286     -120.87295    
    583000   33258.261      0              29.602022      81.207992    
    584000   526.44512      0              29.770541     -73.897644    
    585000   16116.166      0              29.831351     -131.34471    
    586000   18148.253     -0.0026810858   29.901515      251.26975    
    587000   10379.088      0              30.365381     -157.35734    
    588000   770.2216       0              30.437529     -95.243484    
    589000   28849.338      0              30.544134     -25.012031    
    590000   32010.794      0              30.795254      77.585339    
    591000   7978.2261     -0.0036068323   30.715663      351.64954    
    592000   32391.304      0              31.101867      76.187979    
    593000   33250.969      0              31.256801      84.616829    
    594000   33077.437      0              31.414593      82.538099    
    595000   32166.782      0              31.554604      97.298247    
    596000   3929.1245     -0.0040143061   31.539828      389.23267    
    597000   31764.254      0              31.948021      112.23328    
    598000   33961.673      0              32.020365      54.459904    
    599000   9182.8322      0              32.119542     -165.57174    
    600000   113.68967      0              32.362542     -116.34553    
    601000   21119.372      0              32.621423     -109.68896    
    602000   31511.748     -0.0015408303   32.616714      115.02874    
    603000   33143.277      0              32.836567      85.054627    
    604000   3456.0038      0              32.941697     -152.00688    
    605000   10863.707      0              33.235553     -160.97022    
    606000   27022.496     -0.0022795293   33.172672      178.03332    
    607000   30541.005      0              33.414064      4.91939      
    608000   391.24915      0              33.651344     -123.0931     
    609000   32512.491      0              33.801337      78.947069    
    610000   32851.456      0              33.96228       65.379757    
    611000   237.6666       0              34.154014     -119.02647    
    612000   32207.21       0              34.324267      63.935215    
    613000   26827.517      0              34.406122     -39.104896    
    614000   5208.0247      0              34.722479     -152.73105    
    615000   3118.7751     -0.0045686258   35.00863       417.0543     
    616000   2058.054       0              34.988413     -133.79512    
    617000   32379.28       0              35.21426       65.20489     
    618000   26918.223      0              35.299697     -33.555623    
    619000   11495.876      0              35.652364     -148.93859    
    620000   32180.406      0              35.731979      60.505369    
    621000   1616.6576      0              35.960489     -125.89423    
    622000   25711.594     -0.0028853525   36.326106      219.81403    
    623000   295.45816      0              36.318412     -108.44271    
    624000   17187.981     -0.0037896246   36.787905      319.3387     
    625000   547.73137      0              36.700598     -110.61033    
    626000   33320.018     -0.0017958805   36.922164      104.81651    
    627000   4273.0333      0              37.118745     -140.55771    
    628000   30751.614      0              37.228763      39.292504    
    629000   26709.385      0              37.539771     -29.663937    
    630000   4537.2036      0              37.598965     -139.64019    
    631000   4842.1913     -0.0050599343   37.581906      444.54655    
    632000   3260.6706      0              38.086441     -132.83563    
    633000   18101.604      0              38.137339     -107.23062    
    634000   26131.881     -0.003348535    38.203698      254.4892     
    635000   5525.9761      0              38.697588     -141.38332    
    636000   4491.7         0              38.785512     -136.8339     
    637000   35496.724      0              39.020393      59.618846    
    638000   32844.872      0              39.284366      38.837267    
    639000   4932.4348      0              39.503038     -137.33734    
    640000   535.90235      0              39.636858     -104.33846    
    641000   17085.378      0              39.754414     -105.88827    
    642000   34900.892      0              39.999021      25.15114     
    643000   3036.7641     -0.0057431952   40.021435      494.33176    
    644000   34739.202      0              40.551117      21.168346    
    645000   25938.284      0              40.772443     -22.438319    
    646000   15731.437      0              41.001728     -110.07682    
    647000   10107.42       0              41.194661     -132.15457    
    648000   8809.5975      0              41.399708     -133.30749    
    649000   11200.309      0              41.622382     -126.67767    
    650000   17528.872      0              41.849558     -92.645913    
    651000   26966.232      0              42.045107     -14.283007    
    652000   38163.395     -0.0016460883   42.235864      51.357986    
    653000   1112.5501     -0.0063990504   42.526536      539.74444    
    654000   32408.503      0              42.538688     -4.7287685    
    655000   9029.968       0              42.779444     -123.19405    
    656000   29.16693       0              43.081181     -89.939802    
    657000   8731.5982      0              43.381        -122.33093    
    658000   33134.324     -0.003770611    43.276709      261.88918    
    659000   20094.531      0              43.659064     -67.635488    
    660000   122.45315      0              43.990952     -90.219232    
    661000   35708.676      0              44.345553     -24.106054    
    662000   15015.2        0              44.349802     -94.750326    
    663000   4172.2054      0              44.725645     -114.03218    
    664000   40577.634     -0.002048252    44.865017      51.459341    
    665000   802.8474       0              45.167899     -94.234825    
    666000   41262.844     -0.0022589813   45.361339      66.206525    
    667000   3366.508       0              45.670893     -107.68334    
    668000   13818.157      0              45.777331     -101.30814    
    669000   37835.845     -0.0015683355   46.247138     -13.55426     
    670000   502.88522      0              46.3729       -88.053946    
    671000   6214.2448      0              46.542971     -110.67301    
    672000   42042.696     -0.0023979517   46.812197      57.856385    
    673000   31504.806     -0.0048200631   46.725009      344.51895    
    674000   32939.192      0              47.541802     -75.114431    
    675000   26485.207      0              47.781114     -107.0133     
    676000   39307.178     -0.0019154875   48.008789     -16.858428    
    677000   1029.0249     -0.0078138739   48.235042      612.45249    
    678000   15278.619      0              48.240334     -125.60833    
    679000   75.018204      0              48.629395     -83.381703    
    680000   36098.26      -0.0045595342   48.584553      287.82904    
    681000   311.84195      0              49.126471     -87.667893    
    682000   36265.79      -0.0045703512   49.726622      279.37478    
    683000   24731.639      0              49.856889     -144.13824    
    684000   5076.178       0              49.973306     -124.27386    
    685000   5025.6965      0              50.233372     -126.72088    
    686000   28975.982     -0.0016039585   50.631045     -110.7339     
    687000   39540.073     -0.00287004     50.617755      29.851078    
    688000   460.97345      0              50.960324     -103.13721    
    689000   33417.326     -0.0021695989   51.019197     -71.71944     
    690000   37279.419     -0.004092175    51.359314      169.36368    
    691000   22507.329     -0.0015562591   51.927355     -139.83985    
    692000   31720.818     -0.0022947046   52.195582     -77.082491    
    693000   5834.2545     -0.0079277968   52.601569      550.52337    
    694000   2816.1017      0              52.491675     -140.38482    
    695000   31490.251     -0.0026417855   52.990811     -55.049561    
    696000   380.49013      0              53.085408     -124.4615     
    697000   27362.544     -0.0024147333   53.206703     -92.384473    
    698000   4765.5682     -0.0080212051   53.958105      524.55289    
    699000   762.72938     -0.0084158124   53.795292      548.6627     
    700000   10935.498     -0.007349594    54.647451      452.95365    
    701000   22157.586     -0.0023400507   54.391908     -118.06425    
    702000   650.88448      0              54.856652     -138.6725     
    703000   12679.664     -0.0017927043   55.33628      -154.96722    
    704000   24818.952     -0.005177698    55.72278       198.36514    
    705000   38.235372      0              55.845893     -134.31969    
    706000   6418.9019     -0.0077577739   55.85346       444.28546    
    707000   1081.6891      0              56.478739     -134.13917    
    708000   24565.829     -0.0044059605   56.838892      78.564065    
    709000   6835.9772     -0.0017668721   57.105437     -148.45346    
    710000   7354.7133     -0.001855806    57.658049     -148.97728    
    711000   22063.872     -0.0049289207   58.027772      120.12986    
    712000   25.341884      0              58.293898     -107.05178    
    713000   13663.702     -0.0066830822   58.404096      293.82365    
    714000   2104.1844     -0.0016503727   58.993158     -124.417      
    715000   19566.98      -0.0037543917   59.509787     -35.092454    
    716000   3397.0472     -0.0018460516   59.740555     -131.74268    
    717000   19643.775     -0.0044013593   60.221179      24.276338    
    718000   1012.0865     -0.0017132407   60.553079     -110.81955    
    719000   4522.7743     -0.0080191274   60.748412      372.93104    
    720000   81.129288     -0.0016882322   61.379593     -96.265388    
    721000   16654.429     -0.0056216436   61.893238      131.82915    
    722000   4709.6635     -0.0022485361   62.250437     -131.57977    
    723000   5509.6994     -0.0023839527   62.508718     -131.92581    
    724000   16516.938     -0.0052264397   62.974407      73.3749      
    725000   178.08272     -0.0018684943   63.407072     -89.991272    
    726000   899.7619      -0.0086664432   63.916203      377.03009    
    727000   387.94365     -0.0019621248   64.26764      -90.146008    
    728000   13975.213     -0.0060312303   64.790893      131.03368    
    729000   1107.5957     -0.0021293678   65.128265     -97.697967    
    730000   13469.812     -0.0061007465   65.639857      126.14886    
    731000   261.38144     -0.0020690923   65.973755     -80.558021    
    732000   266.9824      -0.0089549103   66.327636      358.87615    
    733000   1002.8107     -0.0022523018   66.811005     -90.106612    
    734000   4391.2378     -0.0027830783   67.333134     -116.00438    
    735000   1008.65       -0.0089525972   67.793643      339.0737     
    736000   4368.2279     -0.0028734557   68.091029     -113.54469    
    737000   32.908023     -0.0021912173   68.596282     -62.152049    
    738000   632.713       -0.0023437586   69.05991      -75.561917    
    739000   2447.1031     -0.0026965863   69.532225     -100.17026    
    740000   2885.9379     -0.0028073415   69.987236     -102.86162    
    741000   1102.1546     -0.0025263697   70.416208     -80.490099    
    742000   12.386142     -0.0022993906   70.850709     -49.019654    
    743000   1905.8237     -0.0027460328   71.271503     -90.52375     
    744000   79.482088     -0.0096199014   71.772325      329.61888    
    745000   343.0794      -0.0024622801   72.227804     -55.510094    
    746000   11850.374     -0.0062168712   72.713712      52.485007    
    747000   0.079620033   -0.0023852765   73.141088     -34.456651    
    748000   4339.4893     -0.0033762318   73.66147      -105.78229    
    749000   11462.377     -0.0067179356   74.029189      77.661102    
    750000   11794.111     -0.0058193761   74.562646      2.3291923    
    751000   700.85029     -0.0027086628   75.014611     -59.927804    
    752000   1109.4772     -0.0028433544   75.450852     -70.631032    
    753000   79.163379     -0.0025107644   75.945079     -24.699465    
    754000   13.62265      -0.0024635862   76.417769     -12.237338    
    755000   1094.1528     -0.0020478002   76.917618      89.828204    
    756000   270034.51      0              73.138505      1006.9813    
    757000   267477.28      0              67.109004      962.33222    
    758000   144123.19      0              61.280892      705.87767    
    759000   209736.14      0              56.021354      464.97638    
    760000   24831.07       0              51.155013      407.10453    
    761000   145392.99      0              48.058598      350.34796    
    762000   112507.19      0              44.305202      353.48905    
    763000   79407.335      0              40.711569      340.21132    
    764000   15547.655      0              39.276722      434.66955    
    765000   38610.039      0              38.11145       415.70298    
    766000   50588.574      0              36.891656      162.31966    
    767000   26480.923      0              36.27582       333.76836    
    768000   23704.288      0              35.755389      289.29968    
    769000   26008.865      0              34.970762      139.37613    
    770000   61196.385      0              34.403811      478.86338    
    771000   3988.6903      0              34.037906      211.38495    
    772000   36814.456      0              33.68748       509.16535    
    773000   37145.027      0              33.805942      528.50934    
    774000   13350.876      0              34.047574      196.02107    
    775000   6455.0199      0              34.223429      70.246504    
    776000   9650.708       0              34.705849      99.826136    
    777000   17300.92       0              34.881709      325.83305    
    778000   5001.5375      0              34.650614      81.937408    
    779000   17296.167      0              34.614825      438.02728    
    780000   36025.692      0              34.734584      616.34772    
    781000   45248.079      0              34.551479      592.32383    
    782000   1806.8825      0              34.69327       178.49574    
    783000   60220.135      0              34.845007      525.10802    
    784000   48523.792      0              34.75734       545.24055    
    785000   71429.452      0              34.016864      1038.7213    
    786000   49703.978      0              33.995741      651.75006    
    787000   7046.95        0              33.720357      500.29338    
    788000   34218.787      0              33.481611      588.54766    
    789000   13201.781      0              33.248027      491.77691    
    790000   27273.713      0              32.808184      676.89099    
    791000   24128.495      0              32.321267      750.02144    
    792000   30577.614      0              30.39095       1274.7709    
    793000   53179.841      0              31.82929       1595.8609    
    794000   26100.867      0              33.464856      904.40657    
    795000   23466.152      0              32.797224      1003.4757    
    796000   25050.798      0              33.080913      1106.4615    
    797000   25211.91       0              33.413426      1131.0747    
    798000   40713.773      0              32.814504      1777.1205    
    799000   17220.02       0              31.879866      1351.4371    
    800000   2876.8295      0              30.93073       1300.1984    
    801000   7708.4616      0              33.190281      1043.9783    
    802000   49021.598      0              32.313126      2161.3151    
    803000   335.66614      0              32.072399      1291.12      
    804000   2982.5678      0              30.725611      1692.9706    
    805000   44065.093      0              32.734354      2222.4488    
    806000   39120.412      0              35.351756      1957.8621    
    807000   33826.759      0              34.490469      2020.8002    
    808000   39813.078      0              35.433714      2088.0407    
    809000   10114.142      0              37.236146      944.35902    
    810000   22971.402      0              38.765698     -36.635076    
    811000   20383.043      0              38.696945     -14.281158    
    812000   18361.674      0              38.663893      193.40097    
    813000   19036.512      0              38.732919      87.741274    
    814000   18720.661      0              38.845969      96.964154    
    815000   16489.113      0              38.991168      141.40879    
    816000   9222.725       0              39.254655      176.72429    
    817000   18209.792      0              39.429578      44.850237    
    818000   16512.114      0              39.592224      44.616023    
    819000   10381.632      0              39.803133      104.72663    
    820000   15372.873      0              40.039087      60.950099    
    821000   14808.178      0              40.283803      63.23669     
    822000   18274.166      0              40.614193      132.24795    
    823000   7803.9769      0              40.764009      100.13617    
    824000   8223.3955      0              41.523236      127.05315    
    825000   9611.249       0              41.640084      104.37735    
    826000   8061.1571      0              41.96751       109.74624    
    827000   11870.413      0              42.158648      80.828735    
    828000   10765.385      0              42.299025      77.675926    
    829000   11799.434      0              42.544638      88.825355    
    830000   21162.288      0              42.77157       143.68372    
    831000   20629.338      0              42.806873      169.50853    
    832000   15063.246      0              43.065156      103.81226    
    833000   13210.383      0              43.283127      104.83387    
    834000   5621.9654      0              43.56582       48.934924    
    835000   5938.9098      0              43.674907      35.447683    
    836000   18210.485      0              43.938086      150.41914    
    837000   4392.2365      0              43.6928        57.017892    
    838000   43031.111      0              43.831941      231.12312    
    839000   6191.0528      0              44.237347      70.515413    
    840000   17274.001      0              44.204369      226.39912    
    841000   28914.545      0              44.23448       395.65572    
    842000   32962.203      0              44.314596      393.90595    
    843000   4342.8185      0              44.244497      41.344119    
    844000   27929.185      0              44.763213      418.94774    
    845000   3691.4917      0              44.953179      17.308418    
    846000   6872.982       0              45.158342      97.382195    
    847000   6432.8794      0              45.554062     -32.586399    
    848000   9312.4721      0              45.811319     -28.840237    
    849000   7369.1378      0              46.161594     -33.879414    
    850000   57207.954      0              46.944819      192.11186    
    851000   14957.634      0              47.066685     -19.38296     
    852000   14410.828      0              47.127143     -14.206488    
    853000   24296.32       0              47.107385      338.52074    
    854000   11266.855      0              47.474436     -24.485436    
    855000   8723.9022      0              47.759643      150.20768    
    856000   9892.7935      0              48.01317       42.927749    
    857000   9849.8175      0              48.237904      32.265197    
    858000   11058.118      0              48.519671     -4.3637436    
    859000   40988.739      0              48.482117      510.38374    
    860000   13759.576      0              48.908746      76.326039    
    861000   12286.323      0              49.340193      44.59836     
    862000   15334.194      0              49.444388      14.837987    
    863000   9769.6612      0              49.431494      130.1187     
    864000   10115.916      0              49.606795      68.418651    
    865000   16049.782      0              49.920343      151.3147     
    866000   51305.219      0              50.367127      578.4662     
    867000   5769.2452      0              50.310728      168.60569    
    868000   28118.384      0              50.111463      365.369      
    869000   60719.58       0              49.03371       394.18991    
    870000   38895.436      0              48.004465      576.73214    
    871000   17788.33       0              47.882135      504.03371    
    872000   55606.091      0              47.58277       558.01479    
    873000   22302.928      0              47.532061      532.91363    
    874000   43872.614      0              47.399034      360.35482    
    875000   27305.954      0              47.857343      491.78041    
    876000   34689.695      0              48.21084       424.33074    
    877000   16341.201      0              48.093252      489.03935    
    878000   32494.181      0              47.845101      378.15642    
    879000   30772.124      0              48.197787      389.12241    
    880000   19431.997      0              46.382496      424.10726    
    881000   24729.096      0              46.304127      727.8605     
    882000   16032.287      0              45.53854       774.19207    
    883000   19275.09       0              46.885823      621.31471    
    884000   10045.47       0              47.319325      294.97338    
    885000   4482.8143      0              47.881777      215.40644    
    886000   11213.476      0              48.693291      204.95665    
    887000   5585.351       0              48.233068      231.75743    
    888000   5877.3696      0              48.92202       174.92798    
    889000   13654.447      0              50.464164      90.276006    
    890000   6773.3397      0              50.72541       19.101524    
    891000   15324.87       0              51.064054      84.953246    
    892000   7492.2559      0              51.330647      12.149598    
    893000   9758.5372      0              51.584967      49.352717    
    894000   2271.5654      0              51.861873      198.42864    
    895000   18586.018      0              52.14282       79.205186    
    896000   26829.826      0              52.409787      227.43019    
    897000   28548.176      0              52.470283      256.8268     
    898000   30778.772      0              52.639131      311.42916    
    899000   10683.869      0              52.857896      60.616721    
    900000   11382.494      0              53.079341      69.451567    
    901000   16803.779      0              53.305314      116.41602    
    902000   10749.117      0              53.519897     -18.151666    
    903000   13887.478      0              53.707008      78.694298    
    904000   20620.598      0              53.866767      18.252983    
    905000   14201.845      0              54.055752      86.031307    
    906000   20545.227      0              54.247656      67.020414    
    907000   20016.63       0              54.455614      61.334324    
    908000   11941.764      0              54.733759     -40.804888    
    909000   10658.189      0              54.87187      -18.002218    
    910000   18615.9        0              55.070798      74.739461    
    911000   39988.546      0              55.320641      334.81769    
    912000   28615.634      0              56.372514      64.284468    
    913000   20247.607      0              56.450668      146.95137    
    914000   24331.87       0              56.399721      68.603199    
    915000   24794.604      0              56.471051      141.50167    
    916000   22819.061      0              56.61153       17.292643    
    917000   20647.543      0              56.678344      92.373329    
    918000   42371.691      0              57.587347      328.66392    
    919000   27083.213      0              57.766294      90.457137    
    920000   1660.0158      0              57.742523      355.44905    
    921000   24781.557      0              57.805112      83.502849    
    922000   16441.763      0              57.931544      57.549751    
    923000   22620.689      0              58.105522     -7.6006727    
    924000   14795.361      0              58.165917      13.604976    
    925000   27988.701      0              58.163018      195.99992    
    926000   21910.489      0              58.20592       198.05401    
    927000   28200.503      0              58.323709      212.5383     
    928000   22204.173      0              58.4406        191.16127    
    929000   16621.268      0              58.501556      173.65554    
    930000   59704.073      0              58.596432      467.64688    
    931000   8642.8544      0              58.614085      95.570661    
    932000   5916.0044      0              58.629399      40.84491     
    933000   18016.727      0              59.174525      199.87652    
    934000   15212.56       0              59.143376      207.08183    
    935000   11864.99       0              59.409801      274.92779    
    936000   6884.986       0              59.561476      11.606894    
    937000   19663.672      0              59.70555      -28.712014    
    938000   117556.96      0              58.13502       2013.0849    
    939000   7192.1918      0              56.728809      275.44446    
    940000   99777.337      0              57.537654      2003.7663    
    941000   31552.617      0              58.462505      488.10845    
    942000   1316.329       0              59.359662      23.016708    
    943000   2018.2768      0              59.674316     -22.37705     
    944000   1676.2338      0              59.666562      85.552052    
    945000   17592.171      0              60.785724      181.79036    
    946000   28479.245      0              60.860542      50.539909    
    947000   44039.301      0              60.794124      534.15923    
    948000   15015.541      0              61.056299     -110.30481    
    949000   23994.865      0              61.120382      12.751491    
    950000   6569.5434      0              61.259868     -73.633413    
    951000   24719.873      0              61.402699      37.390365    
    952000   13167.107      0              61.665225     -106.96135    
    953000   12397.904      0              61.721549     -102.65601    
    954000   2408.6665      0              61.697486     -18.145849    
    955000   17819.104      0              61.407334      209.098      
    956000   11116.48       0              62.349701     -116.93398    
    957000   7866.0358      0              62.259464      179.76759    
    958000   58444.57       0              62.352382      632.98886    
    959000   5842.7279      0              62.173727      167.66066    
    960000   8953.8419      0              61.379998      199.40776    
    961000   90740.381      0              60.696694      1298.2513    
    962000   2854.9951      0              60.850395      173.8193     
    963000   10344.598      0              59.027847      555.22844    
    964000   49960          0              61.202177      699.97609    
    965000   249.73619      0              61.925652      64.583787    
    966000   1375.4547      0              62.130403      61.460474    
    967000   3438.1141      0              62.7284        72.313945    
    968000   1574.6255      0              62.054075      238.52012    
    969000   1181.3639      0              63.215403      12.986833    
    970000   35388.379      0              63.520899      101.92324    
    971000   7316.0785      0              63.85339      -147.36792    
    972000   376.29201      0              63.920691      33.34544     
    973000   2689.2064      0              62.400394      402.46219    
    974000   26216.971      0              58.667501      762.1688     
    975000   35188.173      0              59.510647      811.33076    
    976000   60160.01       0              61.794262      969.43103    
    977000   32182.997      0              62.013994      718.9516     
    978000   7146.9877      0              59.307019      633.3707     
    979000   21153.789      0              62.630548      599.48012    
    980000   7091.4337      0              64.582097      177.55345    
    981000   2529.0806      0              58.737061      689.42532    
    982000   21674.88       0              57.899989      1254.6641    
    983000   30469.776      0              56.690005      1783.7295    
    984000   140310.78      0              60.768157      3517.2428    
    985000   41357.325      0              56.558845      2169.8884    
    986000   34667.62       0              53.201702      2595.5675    
    987000   19840.832      0              40.679253      3604.8401    
    988000   49460.193      0              47.000075      3546.5979    
    989000   24905.547      0              48.18606       3171.9462    
    990000   28308.776      0              50.671138      2923.3957    
    991000   34301.544      0              54.470917      2473.9105    
    992000   30189.444      0              52.580952      2892.4742    
    993000   54351.501      0              59.954         2413.7869    
    994000   8868.9239      0              63.466859      239.55447    
    995000   53676.423      0              59.387487      2612.8865    
    996000   11572.953      0              62.749256      615.79541    
    997000   22348.236      0              60.557177      1606.0943    
    998000   7833.6593      0              63.848015      300.9662     
    999000   33870.649      0              64.6975        307.59057    
   1000000   36334.479      0              64.92963       244.47646    
Loop time of 43.3196 on 1 procs for 1000000 steps with 2 atoms

Performance: 1994.479 ns/day, 0.012 hours/ns, 23084.251 timesteps/s, 46.169 katom-step/s
99.3% CPU use with 1 MPI tasks x 1 OpenMP threads

MPI task timing breakdown:
Section |  min time  |  avg time  |  max time  |%varavg| %total
---------------------------------------------------------------
Pair    | 0.14984    | 0.14984    | 0.14984    |   0.0 |  0.35
Neigh   | 0.047355   | 0.047355   | 0.047355   |   0.0 |  0.11
Comm    | 0.19412    | 0.19412    | 0.19412    |   0.0 |  0.45
Output  | 0.10475    | 0.10475    | 0.10475    |   0.0 |  0.24
Modify  | 42.584     | 42.584     | 42.584     |   0.0 | 98.30
Other   |            | 0.2396     |            |       |  0.55

Nlocal:              2 ave           2 max           2 min
Histogram: 1 0 0 0 0 0 0 0 0 0
Nghost:              2 ave           2 max           2 min
Histogram: 1 0 0 0 0 0 0 0 0 0
Neighs:              0 ave           0 max           0 min
Histogram: 1 0 0 0 0 0 0 0 0 0

Total # of neighbors = 0
Ave neighs/atom = 0
Neighbor list builds = 25919
Dangerous builds = 0
Total wall time: 0:00:44
