LAMMPS (29 Aug 2024)
OMP_NUM_THREADS environment is not set. Defaulting to 1 thread. (src/comm.cpp:98)
  using 1 OpenMP thread(s) per MPI task
Loaded 1 plugins from /home/excelsior/apps/deepmd/3.0.0/lib/deepmd_lmp
#variable seed equal 12345
variable temp equal 1000
units metal
atom_style atomic
boundary p p p
#newton off

lattice fcc 3.26
Lattice spacing in x,y,z = 3.26 3.26 3.26
region box block 0 20 0 20 0 20
create_box 1 box
Created orthogonal box = (0 0 0) to (65.2 65.2 65.2)
  3 by 4 by 4 MPI processor grid
create_atoms 1 box
Created 32000 atoms
  using lattice units in orthogonal box = (0 0 0) to (65.2 65.2 65.2)
  create_atoms CPU = 0.009 seconds

mass 1 39.95
pair_style lj/cut 10.0
pair_coeff 1 1 0.0104 3.405

#group zero_group id 34 56 256
group zero_group region box
32000 atoms in group zero_group
timestep 0.001
#velocity all create ${temp} ${seed}
# 加载插件
# 调用 metad fix：fix ID group metad sigma height biasf pace cv_dim nbin_num continue(bool)
fix 2 all plumed plumedfile plumed.dat
fix             1 all nvt  temp ${temp} ${temp} 100.0
fix             1 all nvt  temp 1000 ${temp} 100.0
fix             1 all nvt  temp 1000 1000 100.0


thermo 1000
thermo_style custom step temp epair etotal press
dump 1 all atom 100 dump.metad.lammpstrj

run 3
Generated 0 of 0 mixed pair_coeff terms from geometric mixing rule
Neighbor list info ...
  update: every = 1 steps, delay = 0 steps, check = yes
  max neighbors/atom: 2000, page size: 100000
  master list distance cutoff = 12
  ghost atom cutoff = 12
  binsize = 6, bins = 11 11 11
  1 neighbor lists, perpetual/occasional/extra = 1 0 0
  (1) pair lj/cut, perpetual
      attributes: half, newton on
      pair build: half/bin/atomonly/newton
      stencil: half/bin/3d
      bin: standard
Per MPI rank memory allocation (min/avg/max) = 4.291 | 4.519 | 4.689 Mbytes
   Step          Temp          E_pair         TotEng         Press     
         0   0              771797.61      771797.61      18994734     
         3   2.9494129e-23  771797.61      771797.61      18994734     
Loop time of 109.943 on 48 procs for 3 steps with 32000 atoms

Performance: 0.002 ns/day, 10179.939 hours/ns, 0.027 timesteps/s, 873.177 atom-step/s
99.5% CPU use with 48 MPI tasks x 1 OpenMP threads

MPI task timing breakdown:
Section |  min time  |  avg time  |  max time  |%varavg| %total
---------------------------------------------------------------
Pair    | 0.016089   | 0.018096   | 0.041208   |   2.7 |  0.02
Neigh   | 0          | 0          | 0          |   0.0 |  0.00
Comm    | 0.0021701  | 0.025392   | 0.027567   |   2.3 |  0.02
Output  | 0.00012117 | 0.00012638 | 0.00017543 |   0.0 |  0.00
Modify  | 109.9      | 109.9      | 109.9      |   0.0 | 99.96
Other   |            | 0.0005715  |            |       |  0.00

Nlocal:        666.667 ave         700 max         650 min
Histogram: 32 0 0 0 0 0 0 0 0 16
Nghost:        8187.67 ave        8413 max        8050 min
Histogram: 16 16 0 0 0 0 0 0 0 16
Neighs:         295333 ave      323350 max      275125 min
Histogram: 8 8 0 4 8 12 0 0 4 4

Total # of neighbors = 14176000
Ave neighs/atom = 443
Neighbor list builds = 0
Dangerous builds = 0
Total wall time: 0:02:29
